FePO4                                   
           1
     5.640037   -0.000000    0.034595
    -0.000000    7.691161   -0.000000
    -0.773783   -0.000000    8.376394
   Fe   P    O 
   4   4  16
Direct configuration=     1
   0.38810000  0.80590000  0.06020000
   0.61190000  0.19410000  0.93980000
   0.11190000  0.30590000  0.43980000
   0.88810000  0.69410000  0.56020000
   0.58960000  0.45790000  0.26590000
   0.41040000  0.54210000  0.73410000
   0.91040000  0.95790000  0.23410000
   0.08960000  0.04210000  0.76590000
   0.48100000  0.64000000  0.22800000
   0.51900000  0.36000000  0.77200000
   0.01900000  0.14000000  0.27200000
   0.98100000  0.86000000  0.72800000
   0.82800000  0.46300000  0.38400000
   0.17200000  0.53700000  0.61600000
   0.67200000  0.96300000  0.11600000
   0.32800000  0.03700000  0.88400000
   0.64100000  0.35800000  0.11600000
   0.35900000  0.64200000  0.88400000
   0.85900000  0.85800000  0.38400000
   0.14100000  0.14200000  0.61600000
   0.41000000  0.34300000  0.36800000
   0.59000000  0.65700000  0.63200000
   0.09000000  0.84300000  0.13200000
   0.91000000  0.15700000  0.86800000
FePO4                                   
           1
     5.526224   -0.000000    0.009962
    -0.000000    7.540945   -0.000000
    -0.793170   -0.000000    8.118185
   Fe   P    O 
   4   4  16
Direct configuration=     2
   0.39016038  0.80925003  0.05779654
   0.60983962  0.19074999  0.94220340
   0.10983965  0.30924998  0.44220338
   0.89016051  0.69074989  0.55779653
   0.57205789  0.45076021  0.28050199
   0.42794217  0.54924035  0.71949784
   0.92794227  0.95075970  0.21949800
   0.07205755  0.04923969  0.78050198
   0.48280070  0.64202072  0.23139380
   0.51719948  0.35797919  0.76860641
   0.01719956  0.14202088  0.26860637
   0.98280071  0.85797963  0.73139383
   0.84046396  0.46981659  0.39069266
   0.15953617  0.53018330  0.60930743
   0.65953602  0.96981664  0.10930734
   0.34046407  0.03018340  0.89069268
   0.64361696  0.35003687  0.10139915
   0.35638304  0.64996303  0.89860061
   0.85638311  0.85003697  0.39860059
   0.14361676  0.14996312  0.60139914
   0.42092107  0.34930393  0.36295167
   0.57907842  0.65069585  0.63704858
   0.07907869  0.84930409  0.13704842
   0.92092123  0.15069597  0.86295165
FePO4                                   
           1
     5.522895   -0.000000    0.009241
    -0.000000    7.536550   -0.000000
    -0.793737   -0.000000    8.110631
   Fe   P    O 
   4   4  16
Direct configuration=     3
   0.38871724  0.80693005  0.05943981
   0.61128276  0.19306996  0.94056017
   0.11128277  0.30693003  0.44056016
   0.88871728  0.69306993  0.55943981
   0.58429988  0.45570470  0.27050410
   0.41570014  0.54429547  0.72949584
   0.91570017  0.95570454  0.22949589
   0.08429978  0.04429527  0.77050410
   0.48158155  0.64062132  0.22908688
   0.51841851  0.35937865  0.77091319
   0.01841853  0.14062137  0.27091318
   0.98158155  0.85937879  0.72908689
   0.83189660  0.46509593  0.38616880
   0.16810345  0.53490404  0.61383123
   0.66810340  0.96509594  0.11383120
   0.33189663  0.03490407  0.88616881
   0.64169550  0.35555154  0.11135363
   0.35830450  0.64444843  0.88864629
   0.85830452  0.85555157  0.38864629
   0.14169543  0.14444846  0.61135363
   0.41333063  0.34493830  0.36642210
   0.58666922  0.65506163  0.63357798
   0.08666929  0.84493835  0.13357793
   0.91333068  0.15506167  0.86642209
FePO4                                   
           1
     5.597539    0.000000    0.004198
     0.000001    7.577072    0.000000
    -0.811973    0.000000    8.171699
   Fe   P    O 
   4   4  16
Direct configuration=     4
   0.38867452  0.80686083  0.05948929
   0.61132548  0.19313918  0.94051069
   0.11132549  0.30686081  0.44051069
   0.88867456  0.69313915  0.55948929
   0.58466319  0.45585223  0.27020340
   0.41533683  0.54414793  0.72979655
   0.91533686  0.95585208  0.22979660
   0.08466309  0.04414774  0.77020339
   0.48154458  0.64057956  0.22901713
   0.51845547  0.35942041  0.77098293
   0.01845549  0.14057961  0.27098292
   0.98154459  0.85942053  0.72901714
   0.83163962  0.46495507  0.38603149
   0.16836042  0.53504490  0.61396853
   0.66836037  0.96495509  0.11396851
   0.33163965  0.03504492  0.88603150
   0.64164045  0.35571609  0.11165394
   0.35835954  0.64428389  0.88834599
   0.85835957  0.85571611  0.38834598
   0.14164039  0.14428391  0.61165393
   0.41310473  0.34480804  0.36652618
   0.58689513  0.65519190  0.63347389
   0.08689521  0.84480808  0.13347384
   0.91310477  0.15519193  0.86652618
FePO4                                   
           1
     5.565646    0.000000    0.006353
     0.000000    7.559759    0.000000
    -0.804182   -0.000000    8.145607
   Fe   P    O 
   4   4  16
Direct configuration=     5
   0.39104652  0.80810297  0.05828264
   0.60895347  0.19189709  0.94171731
   0.10895351  0.30810289  0.44171729
   0.89104649  0.69189701  0.55828269
   0.58547262  0.45078291  0.26832771
   0.41452735  0.54921665  0.73167243
   0.91452737  0.95078329  0.23167227
   0.08547279  0.04921722  0.76832777
   0.48491672  0.63863634  0.23197258
   0.51508319  0.36136394  0.76802741
   0.01508328  0.13863615  0.26802741
   0.98491653  0.86136353  0.73197250
   0.83296236  0.46972508  0.38710140
   0.16703752  0.53027498  0.61289860
   0.66703763  0.96972501  0.11289864
   0.33296232  0.03027493  0.88710136
   0.63997002  0.35776633  0.11342008
   0.36002998  0.64223372  0.88657994
   0.86003002  0.85776625  0.38658000
   0.13996992  0.14223365  0.61342007
   0.41553002  0.34641256  0.36567818
   0.58447025  0.65358756  0.63432175
   0.08447017  0.84641251  0.13432183
   0.91552995  0.15358742  0.86567813
FePO4                                   
           1
     5.585004   -0.000000   -0.026074
    -0.000000    7.553765    0.000000
    -0.854459    0.000000    8.164395
   Fe   P    O 
   4   4  16
Direct configuration=     6
   0.39004760  0.80757508  0.05879371
   0.60995240  0.19242495  0.94120625
   0.10995242  0.30757503  0.44120624
   0.89004759  0.69242489  0.55879374
   0.58513310  0.45293726  0.26912292
   0.41486689  0.54706256  0.73087714
   0.91486691  0.95293742  0.23087707
   0.08513316  0.04706280  0.76912295
   0.48349227  0.63946217  0.23071837
   0.51650770  0.36053798  0.76928166
   0.01650776  0.13946208  0.26928165
   0.98349216  0.86053780  0.73071832
   0.83240369  0.46769793  0.38664733
   0.16759625  0.53230209  0.61335268
   0.66759630  0.96769789  0.11335269
   0.33240368  0.03230207  0.88664731
   0.64067264  0.35689502  0.11267156
   0.35932736  0.64310500  0.88732842
   0.85932739  0.85689499  0.38732846
   0.14067256  0.14310497  0.61267155
   0.41450829  0.34573067  0.36603715
   0.58549180  0.65426937  0.63396285
   0.08549179  0.84573066  0.13396287
   0.91450827  0.15426930  0.86603712
FePO4                                   
           1
     5.576189   -0.000000   -0.011308
    -0.000000    7.556494    0.000000
    -0.831565    0.000000    8.155840
   Fe   P    O 
   4   4  16
Direct configuration=     7
   0.39074873  0.80790297  0.05916866
   0.60925129  0.19209702  0.94083132
   0.10925128  0.30790297  0.44083128
   0.89074871  0.69209703  0.55916870
   0.58780737  0.45356903  0.26942690
   0.41219264  0.54643135  0.73057301
   0.91219265  0.95356877  0.23057317
   0.08780727  0.04643082  0.76942681
   0.48676771  0.63765182  0.23199467
   0.51323240  0.36234799  0.76800541
   0.01323243  0.13765203  0.26800537
   0.98676766  0.86234824  0.73199468
   0.83153151  0.47086826  0.38624169
   0.16846852  0.52913167  0.61375833
   0.66846854  0.97086831  0.11375833
   0.33153149  0.02913173  0.88624167
   0.63983170  0.35717902  0.11248016
   0.36016834  0.64282095  0.88751975
   0.86016844  0.85717909  0.38751970
   0.13983158  0.14282098  0.61248018
   0.41313776  0.34534599  0.36663963
   0.58686209  0.65465386  0.63336050
   0.08686223  0.84534609  0.13336045
   0.91313765  0.15465401  0.86663962
FePO4                                   
           1
     5.573661   -0.000000   -0.024606
    -0.000000    7.551407   -0.000000
    -0.850660   -0.000000    8.144432
   Fe   P    O 
   4   4  16
Direct configuration=     8
   0.39042890  0.80775355  0.05899704
   0.60957112  0.19224647  0.94100293
   0.10957112  0.30775352  0.44100290
   0.89042888  0.69224644  0.55899708
   0.58659190  0.45328112  0.26928397
   0.41340811  0.54671901  0.73071601
   0.91340812  0.95328105  0.23071606
   0.08659186  0.04671883  0.76928393
   0.48527543  0.63847684  0.23140890
   0.51472462  0.36152313  0.76859115
   0.01472466  0.13847691  0.26859113
   0.98527536  0.86152318  0.73140888
   0.83192913  0.46942346  0.38642756
   0.16807086  0.53057651  0.61357246
   0.66807089  0.96942347  0.11357246
   0.33192912  0.03057653  0.88642754
   0.64021430  0.35704959  0.11256863
   0.35978573  0.64295040  0.88743131
   0.85978580  0.85704962  0.38743130
   0.14021419  0.14295040  0.61256864
   0.41375769  0.34552130  0.36636838
   0.58624227  0.65447864  0.63363169
   0.08624234  0.84552135  0.13363168
   0.91375762  0.15447869  0.86636836
FePO4                                   
           1
     5.573530   -0.000000   -0.025294
    -0.000000    7.551144   -0.000000
    -0.851647   -0.000000    8.143841
   Fe   P    O 
   4   4  16
Direct configuration=     9
   0.39005666  0.80758178  0.05994122
   0.60994332  0.19241827  0.94005874
   0.10994334  0.30758172  0.44005871
   0.89005667  0.69241824  0.55994126
   0.58651075  0.45251437  0.27047738
   0.41348926  0.54748548  0.72952260
   0.91348934  0.95251456  0.22952254
   0.08651065  0.04748559  0.77047747
   0.48725210  0.63884945  0.23147178
   0.51274793  0.36115059  0.76852823
   0.01274789  0.13884942  0.26852818
   0.98725208  0.86115051  0.73147178
   0.83229704  0.47148964  0.38637074
   0.16770291  0.52851039  0.61362925
   0.66770295  0.97148965  0.11362929
   0.33229703  0.02851033  0.88637072
   0.63942499  0.35690786  0.11233566
   0.36057497  0.64309220  0.88766437
   0.86057509  0.85690781  0.38766444
   0.13942488  0.14309214  0.61233563
   0.41354051  0.34572758  0.36617758
   0.58645959  0.65427246  0.63382245
   0.08645954  0.84572760  0.13382249
   0.91354051  0.15427235  0.86617751
FePO4                                   
           1
     5.581648   -0.000000   -0.034246
    -0.000001    7.541926    0.000001
    -0.866076    0.000001    8.120321
   Fe   P    O 
   4   4  16
Direct configuration=    10
   0.39003757  0.80757289  0.05999010
   0.60996241  0.19242716  0.94000986
   0.10996243  0.30757283  0.44000984
   0.89003758  0.69242713  0.55999013
   0.58650677  0.45247468  0.27053920
   0.41349324  0.54752516  0.72946079
   0.91349332  0.95247489  0.22946072
   0.08650667  0.04752528  0.77053928
   0.48735443  0.63886873  0.23147520
   0.51264560  0.36113131  0.76852480
   0.01264555  0.13886870  0.26852475
   0.98735441  0.86113122  0.73147520
   0.83231607  0.47159658  0.38636783
   0.16768387  0.52840345  0.61363216
   0.66768392  0.97159660  0.11363220
   0.33231607  0.02840338  0.88636781
   0.63938409  0.35690052  0.11232352
   0.36061586  0.64309954  0.88767651
   0.86061599  0.85690047  0.38767659
   0.13938398  0.14309948  0.61232349
   0.41352923  0.34573826  0.36616768
   0.58647088  0.65426178  0.63383235
   0.08647082  0.84573827  0.13383239
   0.91352924  0.15426167  0.86616760
FePO4                                   
           1
     5.579043   -0.000000   -0.031374
    -0.000000    7.544884    0.000000
    -0.861446    0.000001    8.127868
   Fe   P    O 
   4   4  16
Direct configuration=    11
   0.38992020  0.80698237  0.06097190
   0.61007979  0.19301768  0.93902808
   0.11007981  0.30698233  0.43902809
   0.88992021  0.69301766  0.56097189
   0.58618992  0.45217972  0.27001165
   0.41381005  0.54782043  0.72998836
   0.91380994  0.95217955  0.22998846
   0.08618998  0.04782024  0.77001154
   0.48925173  0.63965580  0.23137765
   0.51074837  0.36034407  0.76862234
   0.01074833  0.13965604  0.26862230
   0.98925177  0.86034407  0.73137771
   0.83386857  0.47324622  0.38682572
   0.16613145  0.52675374  0.61317430
   0.66613144  0.97324624  0.11317433
   0.33386852  0.02675379  0.88682569
   0.63801898  0.35689253  0.11282929
   0.36198102  0.64310741  0.88717062
   0.86198121  0.85689270  0.38717058
   0.13801881  0.14310738  0.61282938
   0.41338390  0.34571090  0.36613812
   0.58661607  0.65428909  0.63386195
   0.08661620  0.84571092  0.13386190
   0.91338372  0.15428910  0.86613814
FePO4                                   
           1
     5.584906    0.000000   -0.036832
     0.000000    7.544394   -0.000000
    -0.870320   -0.000000    8.124888
   Fe   P    O 
   4   4  16
Direct configuration=    12
   0.38995686  0.80717209  0.06065598
   0.61004313  0.19282796  0.93934400
   0.11004314  0.30717204  0.43934399
   0.88995687  0.69282794  0.56065599
   0.58629198  0.45227448  0.27018154
   0.41370801  0.54772557  0.72981847
   0.91370796  0.95227444  0.22981851
   0.08629198  0.04772548  0.77018149
   0.48864379  0.63940293  0.23140838
   0.51135629  0.36059699  0.76859162
   0.01135624  0.13940309  0.26859158
   0.98864381  0.86059697  0.73140842
   0.83337059  0.47271623  0.38667781
   0.16662941  0.52728375  0.61332219
   0.66662942  0.97271625  0.11332223
   0.33337056  0.02728377  0.88667779
   0.63845597  0.35689510  0.11266700
   0.36154402  0.64310488  0.88733295
   0.86154419  0.85689519  0.38733294
   0.13845582  0.14310484  0.61266705
   0.41343050  0.34571969  0.36614768
   0.58656951  0.65428032  0.63385237
   0.08656958  0.84571971  0.13385235
   0.91343038  0.15428029  0.86614767
FePO4                                   
           1
     5.585406    0.000000   -0.037298
     0.000000    7.544352   -0.000000
    -0.871077   -0.000001    8.124633
   Fe   P    O 
   4   4  16
Direct configuration=    13
   0.39014298  0.80713682  0.06094629
   0.60985705  0.19286323  0.93905368
   0.10985702  0.30713678  0.43905367
   0.89014302  0.69286317  0.56094632
   0.58671441  0.45298109  0.27021755
   0.41328565  0.54701885  0.72978247
   0.91328578  0.95298120  0.22978235
   0.08671424  0.04701886  0.77021766
   0.48942400  0.63988100  0.23143516
   0.51057602  0.36011902  0.76856479
   0.01057595  0.13988105  0.26856478
   0.98942405  0.86011890  0.73143520
   0.83371994  0.47290585  0.38670556
   0.16628001  0.52709412  0.61329444
   0.66628004  0.97290590  0.11329449
   0.33371986  0.02709415  0.88670549
   0.63766340  0.35658425  0.11259462
   0.36233660  0.64341576  0.88740540
   0.86233668  0.85658425  0.38740547
   0.13766328  0.14341576  0.61259457
   0.41378848  0.34574811  0.36612260
   0.58621155  0.65425190  0.63387743
   0.08621151  0.84574820  0.13387748
   0.91378848  0.15425177  0.86612252
FePO4                                   
           1
     5.588888   -0.000000   -0.038345
    -0.000000    7.546750    0.000000
    -0.873161    0.000000    8.121999
   Fe   P    O 
   4   4  16
Direct configuration=    14
   0.39015890  0.80713381  0.06097110
   0.60984113  0.19286624  0.93902887
   0.10984110  0.30713377  0.43902886
   0.89015894  0.69286618  0.56097113
   0.58675045  0.45304144  0.27022065
   0.41324961  0.54695849  0.72977937
   0.91324976  0.95304156  0.22977924
   0.08675026  0.04695852  0.77022078
   0.48949056  0.63992182  0.23143749
   0.51050945  0.36007821  0.76856245
   0.01050938  0.13992187  0.26856244
   0.98949062  0.86007807  0.73143754
   0.83374975  0.47292204  0.38670795
   0.16625020  0.52707793  0.61329205
   0.66625023  0.97292210  0.11329210
   0.33374966  0.02707796  0.88670788
   0.63759577  0.35655771  0.11258839
   0.36240422  0.64344231  0.88741163
   0.86240430  0.85655770  0.38741171
   0.13759566  0.14344231  0.61258834
   0.41381901  0.34575054  0.36612048
   0.58618102  0.65424947  0.63387955
   0.08618096  0.84575063  0.13387961
   0.91381903  0.15424934  0.86612040
FePO4                                   
           1
     5.591479   -0.000000   -0.039124
    -0.000001    7.548534    0.000001
    -0.874711    0.000001    8.120039
   Fe   P    O 
   4   4  16
Direct configuration=    15
   0.39005796  0.80731961  0.06111185
   0.60994209  0.19268043  0.93888813
   0.10994208  0.30731957  0.43888814
   0.89005798  0.69268036  0.56111186
   0.58697518  0.45318157  0.27036100
   0.41302484  0.54681842  0.72963901
   0.91302487  0.95318168  0.22963909
   0.08697510  0.04681834  0.77036091
   0.49012802  0.64050256  0.23152674
   0.50987199  0.35949742  0.76847319
   0.00987188  0.14050265  0.26847317
   0.99012813  0.85949735  0.73152682
   0.83390556  0.47292010  0.38664820
   0.16609442  0.52707986  0.61335182
   0.66609439  0.97292016  0.11335184
   0.33390551  0.02707992  0.88664815
   0.63677381  0.35640751  0.11263318
   0.36322623  0.64359247  0.88736684
   0.86322630  0.85640758  0.38736680
   0.13677367  0.14359245  0.61263321
   0.41444092  0.34606151  0.36597353
   0.58555910  0.65393850  0.63402649
   0.08555915  0.84606158  0.13402651
   0.91444080  0.15393841  0.86597350
FePO4                                   
           1
     5.594544    0.000000   -0.038933
     0.000000    7.547311    0.000000
    -0.874926    0.000000    8.118183
   Fe   P    O 
   4   4  16
Direct configuration=    16
   0.38998294  0.80745782  0.06121660
   0.61001712  0.19254222  0.93878340
   0.11001712  0.30745777  0.43878342
   0.88998295  0.69254214  0.56121660
   0.58714233  0.45328580  0.27046549
   0.41285766  0.54671423  0.72953451
   0.91285760  0.95328590  0.22953475
   0.08714233  0.04671407  0.77046524
   0.49060207  0.64093452  0.23159323
   0.50939795  0.35906542  0.76840670
   0.00939781  0.14093464  0.26840666
   0.99060221  0.85906540  0.73159334
   0.83402141  0.47291865  0.38660373
   0.16597859  0.52708130  0.61339630
   0.66597853  0.97291872  0.11339629
   0.33402139  0.02708139  0.88660371
   0.63616261  0.35629580  0.11266643
   0.36383746  0.64370416  0.88733358
   0.86383752  0.85629591  0.38733346
   0.13616245  0.14370412  0.61266653
   0.41490332  0.34629282  0.36586421
   0.58509669  0.65370719  0.63413581
   0.08509681  0.84629287  0.13413579
   0.91490311  0.15370714  0.86586422
FePO4                                   
           1
     5.600330    0.000001   -0.038572
     0.000001    7.545003   -0.000000
    -0.875332   -0.000001    8.114678
   Fe   P    O 
   4   4  16
Direct configuration=    17
   0.38958367  0.80769480  0.06126466
   0.61041638  0.19230524  0.93873534
   0.11041640  0.30769473  0.43873536
   0.88958368  0.69230517  0.56126466
   0.58725705  0.45351384  0.27033372
   0.41274294  0.54648616  0.72966627
   0.91274286  0.95351391  0.22966629
   0.08725704  0.04648608  0.77033369
   0.49138273  0.64129910  0.23179937
   0.50861725  0.35870084  0.76820056
   0.00861715  0.14129932  0.26820056
   0.99138285  0.85870074  0.73179944
   0.83420098  0.47289224  0.38654506
   0.16579905  0.52710772  0.61345499
   0.66579903  0.97289231  0.11345500
   0.33420092  0.02710780  0.88654503
   0.63530071  0.35622932  0.11267509
   0.36469939  0.64377061  0.88732493
   0.86469941  0.85622937  0.38732492
   0.13530058  0.14377066  0.61267507
   0.41514615  0.34661906  0.36591679
   0.58485388  0.65338097  0.63408321
   0.08485387  0.84661919  0.13408327
   0.91514604  0.15338083  0.86591673
FePO4                                   
           1
     5.602937   -0.000000   -0.039808
    -0.000001    7.542870    0.000001
    -0.877518    0.000001    8.116557
   Fe   P    O 
   4   4  16
Direct configuration=    18
   0.38883033  0.80814225  0.06135542
   0.61116967  0.19185779  0.93864458
   0.11116973  0.30814213  0.43864459
   0.88883034  0.69185773  0.56135543
   0.58747349  0.45394441  0.27008491
   0.41252650  0.54605554  0.72991506
   0.91252638  0.95394442  0.22991469
   0.08747345  0.04605561  0.77008529
   0.49285568  0.64198748  0.23218856
   0.50714425  0.35801247  0.76781134
   0.00714421  0.14198786  0.26781142
   0.99285576  0.85801222  0.73218858
   0.83453977  0.47284239  0.38643426
   0.16546030  0.52715758  0.61356584
   0.66546036  0.97284243  0.11356589
   0.33453965  0.02715769  0.88643420
   0.63367451  0.35610381  0.11269148
   0.36632565  0.64389609  0.88730855
   0.86632558  0.85610373  0.38730875
   0.13367445  0.14389628  0.61269123
   0.41560433  0.34723504  0.36601605
   0.58439573  0.65276503  0.63398390
   0.08439548  0.84723532  0.13398411
   0.91560440  0.15276470  0.86601586
FePO4                                   
           1
     5.604133   -0.000001   -0.040375
    -0.000001    7.541892    0.000001
    -0.878520    0.000002    8.117419
   Fe   P    O 
   4   4  16
Direct configuration=    19
   0.38816960  0.80844147  0.06132910
   0.61183034  0.19155859  0.93867089
   0.11183042  0.30844138  0.43867091
   0.88816964  0.69155849  0.56132909
   0.58766341  0.45423207  0.27009805
   0.41233668  0.54576789  0.72990192
   0.91233648  0.95423232  0.22990214
   0.08766345  0.04576776  0.77009787
   0.49370744  0.64243531  0.23241141
   0.50629249  0.35756462  0.76758850
   0.00629227  0.14243544  0.26758847
   0.99370767  0.85756462  0.73241152
   0.83465497  0.47280135  0.38627839
   0.16534506  0.52719863  0.61372170
   0.66534494  0.97280139  0.11372165
   0.33465501  0.02719872  0.88627844
   0.63278900  0.35596878  0.11229289
   0.36721119  0.64403111  0.88770716
   0.86721114  0.85596888  0.38770707
   0.13278892  0.14403111  0.61229293
   0.41534644  0.34760084  0.36634146
   0.58465356  0.65239922  0.63365850
   0.08465366  0.84760099  0.13365852
   0.91534623  0.15239904  0.86634143
FePO4                                   
           1
     5.603779   -0.000001   -0.040207
    -0.000001    7.542182    0.000001
    -0.878224    0.000002    8.117164
   Fe   P    O 
   4   4  16
Direct configuration=    20
   0.38786664  0.80857876  0.06131699
   0.61213328  0.19142130  0.93868301
   0.11213337  0.30857869  0.43868303
   0.88786669  0.69142117  0.56131696
   0.58775050  0.45436407  0.27010409
   0.41224963  0.54563590  0.72989588
   0.91224939  0.95436443  0.22989637
   0.08775057  0.04563567  0.77010366
   0.49409802  0.64264080  0.23251367
   0.50590191  0.35735912  0.76748623
   0.00590159  0.14264082  0.26748615
   0.99409833  0.85735923  0.73251383
   0.83470778  0.47278252  0.38620691
   0.16529224  0.52721747  0.61379317
   0.66529205  0.97278255  0.11379308
   0.33470788  0.02721755  0.88620702
   0.63238291  0.35590682  0.11211002
   0.36761730  0.64409306  0.88789003
   0.86761726  0.85590701  0.38788981
   0.13238281  0.14409298  0.61211020
   0.41522824  0.34776869  0.36649069
   0.58477173  0.65223136  0.63350928
   0.08477198  0.84776878  0.13350921
   0.91522790  0.15223125  0.86649073
FePO4                                   
           1
     5.603569    0.000000   -0.039978
     0.000000    7.538716    0.000000
    -0.877870    0.000000    8.115553
   Fe   P    O 
   4   4  16
Direct configuration=    21
   0.38795629  0.80853812  0.06132058
   0.61204364  0.19146194  0.93867942
   0.11204372  0.30853804  0.43867944
   0.88795633  0.69146182  0.56132056
   0.58772473  0.45432499  0.27010230
   0.41227539  0.54567497  0.72989767
   0.91227516  0.95432533  0.22989808
   0.08772479  0.04567477  0.77010194
   0.49398244  0.64257997  0.23248340
   0.50601749  0.35741995  0.76751650
   0.00601720  0.14258003  0.26751644
   0.99398273  0.85742003  0.73248354
   0.83469215  0.47278809  0.38622806
   0.16530787  0.52721189  0.61377202
   0.66530770  0.97278813  0.11377194
   0.33469224  0.02721198  0.88622815
   0.63250308  0.35592516  0.11216414
   0.36749712  0.64407472  0.88783591
   0.86749708  0.85592532  0.38783572
   0.13250299  0.14407466  0.61216428
   0.41526321  0.34771900  0.36644653
   0.58473677  0.65228105  0.63355343
   0.08473698  0.84771911  0.13355339
   0.91526290  0.15228092  0.86644655
FePO4                                   
           1
     5.603308    0.000002   -0.039691
     0.000002    7.534394   -0.000002
    -0.877428   -0.000002    8.113545
   Fe   P    O 
   4   4  16
Direct configuration=    22
   0.38768069  0.80866481  0.06124582
   0.61231922  0.19133526  0.93875416
   0.11231928  0.30866474  0.43875417
   0.88768079  0.69133516  0.56124581
   0.58763445  0.45413676  0.27009924
   0.41236566  0.54586324  0.72990075
   0.91236557  0.95413681  0.22990062
   0.08763442  0.04586322  0.77009940
   0.49427666  0.64284583  0.23254262
   0.50572330  0.35715406  0.76745729
   0.00572312  0.14284613  0.26745734
   0.99427682  0.85715393  0.73254264
   0.83469014  0.47272362  0.38606802
   0.16530987  0.52727637  0.61393205
   0.66530981  0.97272366  0.11393206
   0.33469008  0.02727644  0.88606802
   0.63207074  0.35606028  0.11198806
   0.36792948  0.64393962  0.88801200
   0.86792936  0.85606031  0.38801206
   0.13207070  0.14393969  0.61198794
   0.41513306  0.34809394  0.36661776
   0.58486691  0.65190608  0.63338220
   0.08486686  0.84809425  0.13338232
   0.91513302  0.15190581  0.86661762
FePO4                                   
           1
     5.603438    0.000001   -0.039834
     0.000001    7.536547   -0.000001
    -0.877648   -0.000001    8.114546
   Fe   P    O 
   4   4  16
Direct configuration=    23
   0.38733706  0.80882283  0.06115259
   0.61266283  0.19117722  0.93884737
   0.11266286  0.30882278  0.43884737
   0.88733722  0.69117716  0.56115260
   0.58752188  0.45390196  0.27009544
   0.41247821  0.54609808  0.72990459
   0.91247829  0.95390165  0.22990380
   0.08752173  0.04609831  0.77009624
   0.49464352  0.64317747  0.23261647
   0.50535649  0.35682239  0.76738346
   0.00535643  0.14317806  0.26738366
   0.99464353  0.85682200  0.73261634
   0.83468764  0.47264320  0.38586845
   0.16531236  0.52735679  0.61413161
   0.66531244  0.97264324  0.11413174
   0.33468739  0.02735684  0.88586832
   0.63153167  0.35622883  0.11176848
   0.36846856  0.64377110  0.88823158
   0.86846837  0.85622869  0.38823195
   0.13153169  0.14377132  0.61176804
   0.41497077  0.34856165  0.36683131
   0.58502919  0.65143835  0.63316866
   0.08502880  0.84856220  0.13316898
   0.91497106  0.15143789  0.86683096
FePO4                                   
           1
     5.604778   -0.000001   -0.040793
    -0.000001    7.530683    0.000001
    -0.879252    0.000001    8.113736
   Fe   P    O 
   4   4  16
Direct configuration=    24
   0.38750829  0.80874405  0.06119905
   0.61249162  0.19125601  0.93880092
   0.11249166  0.30874398  0.43880093
   0.88750841  0.69125593  0.56119905
   0.58757797  0.45401902  0.27009733
   0.41242213  0.54598100  0.72990267
   0.91242212  0.95401889  0.22990222
   0.08757788  0.04598111  0.77009782
   0.49446072  0.64301213  0.23257967
   0.50553927  0.35698774  0.76742025
   0.00553915  0.14301258  0.26742038
   0.99446080  0.85698749  0.73257961
   0.83468889  0.47268330  0.38596791
   0.16531112  0.52731669  0.61403215
   0.66531114  0.97268333  0.11403222
   0.33468872  0.02731675  0.88596785
   0.63180028  0.35614479  0.11187790
   0.36819995  0.64385512  0.88812215
   0.86819979  0.85614474  0.38812237
   0.13180026  0.14385526  0.61187762
   0.41505164  0.34832847  0.36672488
   0.58494832  0.65167154  0.63327509
   0.08494810  0.84832890  0.13327531
   0.91505176  0.15167117  0.86672463
FePO4                                   
           1
     5.605546   -0.000002   -0.041342
    -0.000003    7.527323    0.000002
    -0.880171    0.000002    8.113272
   Fe   P    O 
   4   4  16
Direct configuration=    25
   0.38757332  0.80879384  0.06111569
   0.61242660  0.19120622  0.93888428
   0.11242663  0.30879383  0.43888431
   0.88757345  0.69120612  0.56111567
   0.58740132  0.45410447  0.26998979
   0.41259874  0.54589549  0.73001024
   0.91259859  0.95410469  0.23001054
   0.08740135  0.04589533  0.76998947
   0.49464996  0.64307114  0.23261609
   0.50535002  0.35692878  0.76738383
   0.00534970  0.14307120  0.26738381
   0.99465026  0.85692881  0.73261618
   0.83468911  0.47256640  0.38579020
   0.16531091  0.52743361  0.61420987
   0.66531073  0.97256642  0.11420982
   0.33468914  0.02743365  0.88579025
   0.63141739  0.35638537  0.11172480
   0.36858284  0.64361458  0.88827527
   0.86858274  0.85638552  0.38827509
   0.13141730  0.14361446  0.61172493
   0.41493504  0.34870075  0.36692378
   0.58506494  0.65129924  0.63307618
   0.08506519  0.84870092  0.13307612
   0.91493471  0.15129914  0.86692380
FePO4                                   
           1
     5.608394    0.000000   -0.042957
     0.000000    7.526837   -0.000000
    -0.882938   -0.000000    8.115590
   Fe   P    O 
   4   4  16
Direct configuration=    26
   0.38761057  0.80882239  0.06106792
   0.61238937  0.19117766  0.93893205
   0.11238938  0.30882242  0.43893209
   0.88761070  0.69117754  0.56106788
   0.58730008  0.45415348  0.26992814
   0.41269995  0.54584645  0.73007189
   0.91269972  0.95415391  0.23007264
   0.08730018  0.04584614  0.76992736
   0.49475839  0.64310498  0.23263698
   0.50524159  0.35689497  0.76736294
   0.00524116  0.14310483  0.26736284
   0.99475881  0.85689516  0.73263715
   0.83468921  0.47249936  0.38568835
   0.16531083  0.52750066  0.61431172
   0.66531053  0.97249936  0.11431161
   0.33468934  0.02750069  0.88568846
   0.63119799  0.35652335  0.11163703
   0.36880225  0.64347663  0.88836305
   0.86880217  0.85652362  0.38836264
   0.13119786  0.14347636  0.61163738
   0.41486827  0.34891426  0.36703777
   0.58513172  0.65108572  0.63296219
   0.08513224  0.84891428  0.13296197
   0.91486768  0.15108577  0.86703795
FePO4                                   
           1
     5.610187    0.000001   -0.043973
     0.000002    7.526531   -0.000002
    -0.884680   -0.000002    8.117049
   Fe   P    O 
   4   4  16
Direct configuration=    27
   0.38788414  0.80886956  0.06101112
   0.61211582  0.19113048  0.93898886
   0.11211583  0.30886955  0.43898887
   0.88788424  0.69113043  0.56101111
   0.58717752  0.45427064  0.26995617